
     Program PWSCF v.7.5 starts on 16Jan2026 at 14:56: 5 
        Git branch: develop
        Last git commit: ddbec46536cc9c6f8cf3cd9db486573bcc5424a4
        Last git commit date: Wed Aug 27 10:24:06 2025 +0000
        Last git commit subject: Merge branch 'smallfixes' into 'develop'

     This program is part of the open-source Quantum ESPRESSO suite
     for quantum simulation of materials; please cite
         "P. Giannozzi et al., J. Phys.:Condens. Matter 21 395502 (2009);
         "P. Giannozzi et al., J. Phys.:Condens. Matter 29 465901 (2017);
         "P. Giannozzi et al., J. Chem. Phys. 152 154105 (2020);
          URL http://www.quantum-espresso.org", 
     in publications or presentations arising from this work. More details at
     http://www.quantum-espresso.org/quote

     Parallel version (MPI), running on     4 processors

     MPI processes distributed on     1 nodes
     3238 MiB available memory on the printing compute node when the environment starts

     Reading input from /home/shinapri/Documents/quantum-espresso/scriptation-2/test-project/loop-0/loop-0.in

     Current dimensions of program PWSCF are:
     Max number of different atomic species (ntypx) = 10
     Max number of k-points (npk) =  40000
     Max angular momentum in pseudopotentials (lmaxx) =  4

     R & G space division:  proc/nbgrp/npool/nimage =       4
     Subspace diagonalization in iterative solution of the eigenvalue problem:
     a serial algorithm will be used


     Parallelization info
     --------------------
     sticks:   dense  smooth     PW     G-vecs:    dense   smooth      PW
     Min         183     145     46                 3234     2313     420
     Max         184     146     47                 3235     2316     423
     Sum         733     583    187                12939     9257    1687

     Using Slab Decomposition



     bravais-lattice index     =            2
     lattice parameter (alat)  =      10.2600  a.u.
     unit-cell volume          =     270.0114 (a.u.)^3
     number of atoms/cell      =            2
     number of atomic types    =            1
     number of electrons       =         8.00
     number of Kohn-Sham states=            4
     kinetic-energy cutoff     =      40.0000  Ry
     charge density cutoff     =     200.0000  Ry
     scf convergence threshold =      1.0E-08
     mixing beta               =       0.7000
     number of iterations used =            8  plain     mixing
     Exchange-correlation= PBE
                           (   1   4   3   4   0   0   0)

     celldm(1)=  10.260000  celldm(2)=   0.000000  celldm(3)=   0.000000
     celldm(4)=   0.000000  celldm(5)=   0.000000  celldm(6)=   0.000000

     crystal axes: (cart. coord. in units of alat)
               a(1) = (  -0.500000   0.000000   0.500000 )  
               a(2) = (   0.000000   0.500000   0.500000 )  
               a(3) = (  -0.500000   0.500000   0.000000 )  

     reciprocal axes: (cart. coord. in units 2 pi/alat)
               b(1) = ( -1.000000 -1.000000  1.000000 )  
               b(2) = (  1.000000  1.000000  1.000000 )  
               b(3) = ( -1.000000  1.000000 -1.000000 )  


     PseudoPot. # 1 for Si read from file:
     /home/shinapri/Documents/quantum-espresso/scriptation-2/pps/Si.pbe-n-rrkjus_psl.1.0.0.UPF
     MD5 check sum: 0b0bb1205258b0d07b9f9672cf965d36
     Pseudo is Ultrasoft + core correction, Zval =  4.0
     Generated using "atomic" code by A. Dal Corso  v.5.1
     Using radial grid of 1141 points,  6 beta functions with: 
                l(1) =   0
                l(2) =   0
                l(3) =   1
                l(4) =   1
                l(5) =   2
                l(6) =   2
     Q(r) pseudized with 0 coefficients 


     atomic species   valence    mass     pseudopotential
     Si                4.00    28.08500     Si( 1.00)

     48 Sym. Ops., with inversion, found (24 have fractional translation)


                                    s                        frac. trans.

      isym =  1     identity                                     

 cryst.   s( 1) = (     1          0          0      )
                  (     0          1          0      )
                  (     0          0          1      )

 cart.    s( 1) = (  1.0000000  0.0000000  0.0000000 )
                  (  0.0000000  1.0000000  0.0000000 )
                  (  0.0000000  0.0000000  1.0000000 )


      isym =  2     180 deg rotation - cart. axis [0,0,1]        

 cryst.   s( 2) = (     0          1         -1      )
                  (     1          0         -1      )
                  (     0          0         -1      )

 cart.    s( 2) = ( -1.0000000  0.0000000  0.0000000 )
                  (  0.0000000 -1.0000000  0.0000000 )
                  (  0.0000000  0.0000000  1.0000000 )


      isym =  3     180 deg rotation - cart. axis [0,1,0]        

 cryst.   s( 3) = (    -1          0          0      )
                  (    -1          0          1      )
                  (    -1          1          0      )

 cart.    s( 3) = ( -1.0000000  0.0000000  0.0000000 )
                  (  0.0000000  1.0000000  0.0000000 )
                  (  0.0000000  0.0000000 -1.0000000 )


      isym =  4     180 deg rotation - cart. axis [1,0,0]        

 cryst.   s( 4) = (     0         -1          1      )
                  (     0         -1          0      )
                  (     1         -1          0      )

 cart.    s( 4) = (  1.0000000  0.0000000  0.0000000 )
                  (  0.0000000 -1.0000000  0.0000000 )
                  (  0.0000000  0.0000000 -1.0000000 )


      isym =  5     180 deg rotation - cart. axis [1,1,0]        

 cryst.   s( 5) = (     0         -1          0      )    f =(  0.2500000 )
                  (    -1          0          0      )       (  0.2500000 )
                  (     0          0         -1      )       (  0.2500000 )

 cart.    s( 5) = (  0.0000000  1.0000000  0.0000000 )    f =( -0.2500000 )
                  (  1.0000000  0.0000000  0.0000000 )       (  0.2500000 )
                  (  0.0000000  0.0000000 -1.0000000 )       (  0.2500000 )


      isym =  6     180 deg rotation - cart. axis [1,-1,0]       

 cryst.   s( 6) = (    -1          0          1      )    f =(  0.2500000 )
                  (     0         -1          1      )       (  0.2500000 )
                  (     0          0          1      )       (  0.2500000 )

 cart.    s( 6) = (  0.0000000 -1.0000000  0.0000000 )    f =( -0.2500000 )
                  ( -1.0000000  0.0000000  0.0000000 )       (  0.2500000 )
                  (  0.0000000  0.0000000 -1.0000000 )       (  0.2500000 )


      isym =  7      90 deg rotation - cart. axis [0,0,-1]       

 cryst.   s( 7) = (     0          1          0      )    f =(  0.2500000 )
                  (     0          1         -1      )       (  0.2500000 )
                  (    -1          1          0      )       (  0.2500000 )

 cart.    s( 7) = (  0.0000000  1.0000000  0.0000000 )    f =( -0.2500000 )
                  ( -1.0000000  0.0000000  0.0000000 )       (  0.2500000 )
                  (  0.0000000  0.0000000  1.0000000 )       (  0.2500000 )


      isym =  8      90 deg rotation - cart. axis [0,0,1]        

 cryst.   s( 8) = (     1          0         -1      )    f =(  0.2500000 )
                  (     1          0          0      )       (  0.2500000 )
                  (     1         -1          0      )       (  0.2500000 )

 cart.    s( 8) = (  0.0000000 -1.0000000  0.0000000 )    f =( -0.2500000 )
                  (  1.0000000  0.0000000  0.0000000 )       (  0.2500000 )
                  (  0.0000000  0.0000000  1.0000000 )       (  0.2500000 )


      isym =  9     180 deg rotation - cart. axis [1,0,1]        

 cryst.   s( 9) = (    -1          0          0      )    f =(  0.2500000 )
                  (     0          0         -1      )       (  0.2500000 )
                  (     0         -1          0      )       (  0.2500000 )

 cart.    s( 9) = (  0.0000000  0.0000000  1.0000000 )    f =( -0.2500000 )
                  (  0.0000000 -1.0000000  0.0000000 )       (  0.2500000 )
                  (  1.0000000  0.0000000  0.0000000 )       (  0.2500000 )


      isym = 10     180 deg rotation - cart. axis [-1,0,1]       

 cryst.   s(10) = (     1          0          0      )    f =(  0.2500000 )
                  (     1         -1          0      )       (  0.2500000 )
                  (     1          0         -1      )       (  0.2500000 )

 cart.    s(10) = (  0.0000000  0.0000000 -1.0000000 )    f =( -0.2500000 )
                  (  0.0000000 -1.0000000  0.0000000 )       (  0.2500000 )
                  ( -1.0000000  0.0000000  0.0000000 )       (  0.2500000 )


      isym = 11      90 deg rotation - cart. axis [0,1,0]        

 cryst.   s(11) = (     0          1         -1      )    f =(  0.2500000 )
                  (    -1          1          0      )       (  0.2500000 )
                  (     0          1          0      )       (  0.2500000 )

 cart.    s(11) = (  0.0000000  0.0000000  1.0000000 )    f =( -0.2500000 )
                  (  0.0000000  1.0000000  0.0000000 )       (  0.2500000 )
                  ( -1.0000000  0.0000000  0.0000000 )       (  0.2500000 )


      isym = 12      90 deg rotation - cart. axis [0,-1,0]       

 cryst.   s(12) = (     0         -1          1      )    f =(  0.2500000 )
                  (     0          0          1      )       (  0.2500000 )
                  (    -1          0          1      )       (  0.2500000 )

 cart.    s(12) = (  0.0000000  0.0000000 -1.0000000 )    f =( -0.2500000 )
                  (  0.0000000  1.0000000  0.0000000 )       (  0.2500000 )
                  (  1.0000000  0.0000000  0.0000000 )       (  0.2500000 )


      isym = 13     180 deg rotation - cart. axis [0,1,1]        

 cryst.   s(13) = (    -1          1          0      )    f =(  0.2500000 )
                  (     0          1          0      )       (  0.2500000 )
                  (     0          1         -1      )       (  0.2500000 )

 cart.    s(13) = ( -1.0000000  0.0000000  0.0000000 )    f =( -0.2500000 )
                  (  0.0000000  0.0000000  1.0000000 )       (  0.2500000 )
                  (  0.0000000  1.0000000  0.0000000 )       (  0.2500000 )


      isym = 14     180 deg rotation - cart. axis [0,1,-1]       

 cryst.   s(14) = (     0          0         -1      )    f =(  0.2500000 )
                  (     0         -1          0      )       (  0.2500000 )
                  (    -1          0          0      )       (  0.2500000 )

 cart.    s(14) = ( -1.0000000  0.0000000  0.0000000 )    f =( -0.2500000 )
                  (  0.0000000  0.0000000 -1.0000000 )       (  0.2500000 )
                  (  0.0000000 -1.0000000  0.0000000 )       (  0.2500000 )


      isym = 15      90 deg rotation - cart. axis [-1,0,0]       

 cryst.   s(15) = (     0          0          1      )    f =(  0.2500000 )
                  (    -1          0          1      )       (  0.2500000 )
                  (     0         -1          1      )       (  0.2500000 )

 cart.    s(15) = (  1.0000000  0.0000000  0.0000000 )    f =( -0.2500000 )
                  (  0.0000000  0.0000000  1.0000000 )       (  0.2500000 )
                  (  0.0000000 -1.0000000  0.0000000 )       (  0.2500000 )


      isym = 16      90 deg rotation - cart. axis [1,0,0]        

 cryst.   s(16) = (     1         -1          0      )    f =(  0.2500000 )
                  (     1          0         -1      )       (  0.2500000 )
                  (     1          0          0      )       (  0.2500000 )

 cart.    s(16) = (  1.0000000  0.0000000  0.0000000 )    f =( -0.2500000 )
                  (  0.0000000  0.0000000 -1.0000000 )       (  0.2500000 )
                  (  0.0000000  1.0000000  0.0000000 )       (  0.2500000 )


      isym = 17     120 deg rotation - cart. axis [-1,-1,-1]     

 cryst.   s(17) = (    -1          0          1      )
                  (    -1          1          0      )
                  (    -1          0          0      )

 cart.    s(17) = (  0.0000000  1.0000000  0.0000000 )
                  (  0.0000000  0.0000000  1.0000000 )
                  (  1.0000000  0.0000000  0.0000000 )


      isym = 18     120 deg rotation - cart. axis [-1,1,1]       

 cryst.   s(18) = (     0          1          0      )
                  (     0          0          1      )
                  (     1          0          0      )

 cart.    s(18) = (  0.0000000 -1.0000000  0.0000000 )
                  (  0.0000000  0.0000000  1.0000000 )
                  ( -1.0000000  0.0000000  0.0000000 )


      isym = 19     120 deg rotation - cart. axis [1,1,-1]       

 cryst.   s(19) = (     1          0         -1      )
                  (     0          0         -1      )
                  (     0          1         -1      )

 cart.    s(19) = (  0.0000000  1.0000000  0.0000000 )
                  (  0.0000000  0.0000000 -1.0000000 )
                  ( -1.0000000  0.0000000  0.0000000 )


      isym = 20     120 deg rotation - cart. axis [1,-1,1]       

 cryst.   s(20) = (     0         -1          0      )
                  (     1         -1          0      )
                  (     0         -1          1      )

 cart.    s(20) = (  0.0000000 -1.0000000  0.0000000 )
                  (  0.0000000  0.0000000 -1.0000000 )
                  (  1.0000000  0.0000000  0.0000000 )


      isym = 21     120 deg rotation - cart. axis [1,1,1]        

 cryst.   s(21) = (     0          0         -1      )
                  (     0          1         -1      )
                  (     1          0         -1      )

 cart.    s(21) = (  0.0000000  0.0000000  1.0000000 )
                  (  1.0000000  0.0000000  0.0000000 )
                  (  0.0000000  1.0000000  0.0000000 )


      isym = 22     120 deg rotation - cart. axis [-1,1,-1]      

 cryst.   s(22) = (    -1          1          0      )
                  (    -1          0          0      )
                  (    -1          0          1      )

 cart.    s(22) = (  0.0000000  0.0000000  1.0000000 )
                  ( -1.0000000  0.0000000  0.0000000 )
                  (  0.0000000 -1.0000000  0.0000000 )


      isym = 23     120 deg rotation - cart. axis [1,-1,-1]      

 cryst.   s(23) = (     0          0          1      )
                  (     1          0          0      )
                  (     0          1          0      )

 cart.    s(23) = (  0.0000000  0.0000000 -1.0000000 )
                  ( -1.0000000  0.0000000  0.0000000 )
                  (  0.0000000  1.0000000  0.0000000 )


      isym = 24     120 deg rotation - cart. axis [-1,-1,1]      

 cryst.   s(24) = (     1         -1          0      )
                  (     0         -1          1      )
                  (     0         -1          0      )

 cart.    s(24) = (  0.0000000  0.0000000 -1.0000000 )
                  (  1.0000000  0.0000000  0.0000000 )
                  (  0.0000000 -1.0000000  0.0000000 )


      isym = 25     inversion                                    

 cryst.   s(25) = (    -1          0          0      )    f =(  0.2500000 )
                  (     0         -1          0      )       (  0.2500000 )
                  (     0          0         -1      )       (  0.2500000 )

 cart.    s(25) = ( -1.0000000  0.0000000  0.0000000 )    f =( -0.2500000 )
                  (  0.0000000 -1.0000000  0.0000000 )       (  0.2500000 )
                  (  0.0000000  0.0000000 -1.0000000 )       (  0.2500000 )


      isym = 26     inv. 180 deg rotation - cart. axis [0,0,1]   

 cryst.   s(26) = (     0         -1          1      )    f =(  0.2500000 )
                  (    -1          0          1      )       (  0.2500000 )
                  (     0          0          1      )       (  0.2500000 )

 cart.    s(26) = (  1.0000000  0.0000000  0.0000000 )    f =( -0.2500000 )
                  (  0.0000000  1.0000000  0.0000000 )       (  0.2500000 )
                  (  0.0000000  0.0000000 -1.0000000 )       (  0.2500000 )


      isym = 27     inv. 180 deg rotation - cart. axis [0,1,0]   

 cryst.   s(27) = (     1          0          0      )    f =(  0.2500000 )
                  (     1          0         -1      )       (  0.2500000 )
                  (     1         -1          0      )       (  0.2500000 )

 cart.    s(27) = (  1.0000000  0.0000000  0.0000000 )    f =( -0.2500000 )
                  (  0.0000000 -1.0000000  0.0000000 )       (  0.2500000 )
                  (  0.0000000  0.0000000  1.0000000 )       (  0.2500000 )


      isym = 28     inv. 180 deg rotation - cart. axis [1,0,0]   

 cryst.   s(28) = (     0          1         -1      )    f =(  0.2500000 )
                  (     0          1          0      )       (  0.2500000 )
                  (    -1          1          0      )       (  0.2500000 )

 cart.    s(28) = ( -1.0000000  0.0000000  0.0000000 )    f =( -0.2500000 )
                  (  0.0000000  1.0000000  0.0000000 )       (  0.2500000 )
                  (  0.0000000  0.0000000  1.0000000 )       (  0.2500000 )


      isym = 29     inv. 180 deg rotation - cart. axis [1,1,0]   

 cryst.   s(29) = (     0          1          0      )
                  (     1          0          0      )
                  (     0          0          1      )

 cart.    s(29) = (  0.0000000 -1.0000000  0.0000000 )
                  ( -1.0000000  0.0000000  0.0000000 )
                  (  0.0000000  0.0000000  1.0000000 )


      isym = 30     inv. 180 deg rotation - cart. axis [1,-1,0]  

 cryst.   s(30) = (     1          0         -1      )
                  (     0          1         -1      )
                  (     0          0         -1      )

 cart.    s(30) = (  0.0000000  1.0000000  0.0000000 )
                  (  1.0000000  0.0000000  0.0000000 )
                  (  0.0000000  0.0000000  1.0000000 )


      isym = 31     inv.  90 deg rotation - cart. axis [0,0,-1]  

 cryst.   s(31) = (     0         -1          0      )
                  (     0         -1          1      )
                  (     1         -1          0      )

 cart.    s(31) = (  0.0000000 -1.0000000  0.0000000 )
                  (  1.0000000  0.0000000  0.0000000 )
                  (  0.0000000  0.0000000 -1.0000000 )


      isym = 32     inv.  90 deg rotation - cart. axis [0,0,1]   

 cryst.   s(32) = (    -1          0          1      )
                  (    -1          0          0      )
                  (    -1          1          0      )

 cart.    s(32) = (  0.0000000  1.0000000  0.0000000 )
                  ( -1.0000000  0.0000000  0.0000000 )
                  (  0.0000000  0.0000000 -1.0000000 )


      isym = 33     inv. 180 deg rotation - cart. axis [1,0,1]   

 cryst.   s(33) = (     1          0          0      )
                  (     0          0          1      )
                  (     0          1          0      )

 cart.    s(33) = (  0.0000000  0.0000000 -1.0000000 )
                  (  0.0000000  1.0000000  0.0000000 )
                  ( -1.0000000  0.0000000  0.0000000 )


      isym = 34     inv. 180 deg rotation - cart. axis [-1,0,1]  

 cryst.   s(34) = (    -1          0          0      )
                  (    -1          1          0      )
                  (    -1          0          1      )

 cart.    s(34) = (  0.0000000  0.0000000  1.0000000 )
                  (  0.0000000  1.0000000  0.0000000 )
                  (  1.0000000  0.0000000  0.0000000 )


      isym = 35     inv.  90 deg rotation - cart. axis [0,1,0]   

 cryst.   s(35) = (     0         -1          1      )
                  (     1         -1          0      )
                  (     0         -1          0      )

 cart.    s(35) = (  0.0000000  0.0000000 -1.0000000 )
                  (  0.0000000 -1.0000000  0.0000000 )
                  (  1.0000000  0.0000000  0.0000000 )


      isym = 36     inv.  90 deg rotation - cart. axis [0,-1,0]  

 cryst.   s(36) = (     0          1         -1      )
                  (     0          0         -1      )
                  (     1          0         -1      )

 cart.    s(36) = (  0.0000000  0.0000000  1.0000000 )
                  (  0.0000000 -1.0000000  0.0000000 )
                  ( -1.0000000  0.0000000  0.0000000 )


      isym = 37     inv. 180 deg rotation - cart. axis [0,1,1]   

 cryst.   s(37) = (     1         -1          0      )
                  (     0         -1          0      )
                  (     0         -1          1      )

 cart.    s(37) = (  1.0000000  0.0000000  0.0000000 )
                  (  0.0000000  0.0000000 -1.0000000 )
                  (  0.0000000 -1.0000000  0.0000000 )


      isym = 38     inv. 180 deg rotation - cart. axis [0,1,-1]  

 cryst.   s(38) = (     0          0          1      )
                  (     0          1          0      )
                  (     1          0          0      )

 cart.    s(38) = (  1.0000000  0.0000000  0.0000000 )
                  (  0.0000000  0.0000000  1.0000000 )
                  (  0.0000000  1.0000000  0.0000000 )


      isym = 39     inv.  90 deg rotation - cart. axis [-1,0,0]  

 cryst.   s(39) = (     0          0         -1      )
                  (     1          0         -1      )
                  (     0          1         -1      )

 cart.    s(39) = ( -1.0000000  0.0000000  0.0000000 )
                  (  0.0000000  0.0000000 -1.0000000 )
                  (  0.0000000  1.0000000  0.0000000 )


      isym = 40     inv.  90 deg rotation - cart. axis [1,0,0]   

 cryst.   s(40) = (    -1          1          0      )
                  (    -1          0          1      )
                  (    -1          0          0      )

 cart.    s(40) = ( -1.0000000  0.0000000  0.0000000 )
                  (  0.0000000  0.0000000  1.0000000 )
                  (  0.0000000 -1.0000000  0.0000000 )


      isym = 41     inv. 120 deg rotation - cart. axis [-1,-1,-1]

 cryst.   s(41) = (     1          0         -1      )    f =(  0.2500000 )
                  (     1         -1          0      )       (  0.2500000 )
                  (     1          0          0      )       (  0.2500000 )

 cart.    s(41) = (  0.0000000 -1.0000000  0.0000000 )    f =( -0.2500000 )
                  (  0.0000000  0.0000000 -1.0000000 )       (  0.2500000 )
                  ( -1.0000000  0.0000000  0.0000000 )       (  0.2500000 )


      isym = 42     inv. 120 deg rotation - cart. axis [-1,1,1]  

 cryst.   s(42) = (     0         -1          0      )    f =(  0.2500000 )
                  (     0          0         -1      )       (  0.2500000 )
                  (    -1          0          0      )       (  0.2500000 )

 cart.    s(42) = (  0.0000000  1.0000000  0.0000000 )    f =( -0.2500000 )
                  (  0.0000000  0.0000000 -1.0000000 )       (  0.2500000 )
                  (  1.0000000  0.0000000  0.0000000 )       (  0.2500000 )


      isym = 43     inv. 120 deg rotation - cart. axis [1,1,-1]  

 cryst.   s(43) = (    -1          0          1      )    f =(  0.2500000 )
                  (     0          0          1      )       (  0.2500000 )
                  (     0         -1          1      )       (  0.2500000 )

 cart.    s(43) = (  0.0000000 -1.0000000  0.0000000 )    f =( -0.2500000 )
                  (  0.0000000  0.0000000  1.0000000 )       (  0.2500000 )
                  (  1.0000000  0.0000000  0.0000000 )       (  0.2500000 )


      isym = 44     inv. 120 deg rotation - cart. axis [1,-1,1]  

 cryst.   s(44) = (     0          1          0      )    f =(  0.2500000 )
                  (    -1          1          0      )       (  0.2500000 )
                  (     0          1         -1      )       (  0.2500000 )

 cart.    s(44) = (  0.0000000  1.0000000  0.0000000 )    f =( -0.2500000 )
                  (  0.0000000  0.0000000  1.0000000 )       (  0.2500000 )
                  ( -1.0000000  0.0000000  0.0000000 )       (  0.2500000 )


      isym = 45     inv. 120 deg rotation - cart. axis [1,1,1]   

 cryst.   s(45) = (     0          0          1      )    f =(  0.2500000 )
                  (     0         -1          1      )       (  0.2500000 )
                  (    -1          0          1      )       (  0.2500000 )

 cart.    s(45) = (  0.0000000  0.0000000 -1.0000000 )    f =( -0.2500000 )
                  ( -1.0000000  0.0000000  0.0000000 )       (  0.2500000 )
                  (  0.0000000 -1.0000000  0.0000000 )       (  0.2500000 )


      isym = 46     inv. 120 deg rotation - cart. axis [-1,1,-1] 

 cryst.   s(46) = (     1         -1          0      )    f =(  0.2500000 )
                  (     1          0          0      )       (  0.2500000 )
                  (     1          0         -1      )       (  0.2500000 )

 cart.    s(46) = (  0.0000000  0.0000000 -1.0000000 )    f =( -0.2500000 )
                  (  1.0000000  0.0000000  0.0000000 )       (  0.2500000 )
                  (  0.0000000  1.0000000  0.0000000 )       (  0.2500000 )


      isym = 47     inv. 120 deg rotation - cart. axis [1,-1,-1] 

 cryst.   s(47) = (     0          0         -1      )    f =(  0.2500000 )
                  (    -1          0          0      )       (  0.2500000 )
                  (     0         -1          0      )       (  0.2500000 )

 cart.    s(47) = (  0.0000000  0.0000000  1.0000000 )    f =( -0.2500000 )
                  (  1.0000000  0.0000000  0.0000000 )       (  0.2500000 )
                  (  0.0000000 -1.0000000  0.0000000 )       (  0.2500000 )


      isym = 48     inv. 120 deg rotation - cart. axis [-1,-1,1] 

 cryst.   s(48) = (    -1          1          0      )    f =(  0.2500000 )
                  (     0          1         -1      )       (  0.2500000 )
                  (     0          1          0      )       (  0.2500000 )

 cart.    s(48) = (  0.0000000  0.0000000  1.0000000 )    f =( -0.2500000 )
                  ( -1.0000000  0.0000000  0.0000000 )       (  0.2500000 )
                  (  0.0000000  1.0000000  0.0000000 )       (  0.2500000 )


     point group O_h (m-3m) 
     there are 10 classes
     the character table:

       E     8C3   3C2   6C4   6C2'  i     8S6   3s_h  6S4   6s_d 
A_1g   1.00  1.00  1.00  1.00  1.00  1.00  1.00  1.00  1.00  1.00
A_2g   1.00  1.00  1.00 -1.00 -1.00  1.00  1.00  1.00 -1.00 -1.00
E_g    2.00 -1.00  2.00  0.00  0.00  2.00 -1.00  2.00  0.00  0.00
T_1g   3.00  0.00 -1.00  1.00 -1.00  3.00  0.00 -1.00  1.00 -1.00
T_2g   3.00  0.00 -1.00 -1.00  1.00  3.00  0.00 -1.00 -1.00  1.00
A_1u   1.00  1.00  1.00  1.00  1.00 -1.00 -1.00 -1.00 -1.00 -1.00
A_2u   1.00  1.00  1.00 -1.00 -1.00 -1.00 -1.00 -1.00  1.00  1.00
E_u    2.00 -1.00  2.00  0.00  0.00 -2.00  1.00 -2.00  0.00  0.00
T_1u   3.00  0.00 -1.00  1.00 -1.00 -3.00  0.00  1.00 -1.00  1.00
T_2u   3.00  0.00 -1.00 -1.00  1.00 -3.00  0.00  1.00  1.00 -1.00

     the symmetry operations in each class and the name of the first element:

     E        1
          identity                                               
     8C3     17   19   20   18   24   21   22   23
          120 deg rotation - cart. axis [-1,-1,-1]               
     3C2      2    4    3
          180 deg rotation - cart. axis [0,0,1]                  
     6C4      7    8   15   16   12   11
           90 deg rotation - cart. axis [0,0,-1]                 
     6C2'     5    6   14   13   10    9
          180 deg rotation - cart. axis [1,1,0]                  
     i       25
          inversion                                              
     8S6     41   43   44   42   48   45   46   47
          inv. 120 deg rotation - cart. axis [-1,-1,-1]          
     3s_h    26   28   27
          inv. 180 deg rotation - cart. axis [0,0,1]             
     6S4     31   32   39   40   36   35
          inv.  90 deg rotation - cart. axis [0,0,-1]            
     6s_d    29   30   38   37   34   33
          inv. 180 deg rotation - cart. axis [1,1,0]             

   Cartesian axes

     site n.     atom                  positions (alat units)
         1        Si     tau(   1) = (   0.0000000   0.0000000   0.0000000  )
         2        Si     tau(   2) = (   0.2500000   0.2500000   0.2500000  )

   Crystallographic axes

     site n.     atom                  positions (cryst. coord.)
         1        Si     tau(   1) = (  0.0000000  0.0000000  0.0000000  )
         2        Si     tau(   2) = ( -0.2500000  0.7500000 -0.2500000  )

     number of k points=    28
                       cart. coord. in units 2pi/alat
        k(    1) = (  -0.0833333   0.0833333   0.0833333), wk =   0.0185185
        k(    2) = (  -0.2500000   0.2500000  -0.0833333), wk =   0.0555556
        k(    3) = (  -0.4166667   0.4166667  -0.2500000), wk =   0.0555556
        k(    4) = (   0.4166667  -0.4166667   0.5833333), wk =   0.0555556
        k(    5) = (   0.2500000  -0.2500000   0.4166667), wk =   0.0555556
        k(    6) = (   0.0833333  -0.0833333   0.2500000), wk =   0.0555556
        k(    7) = (  -0.0833333   0.4166667   0.0833333), wk =   0.0555556
        k(    8) = (  -0.2500000   0.5833333  -0.0833333), wk =   0.1111111
        k(    9) = (   0.5833333  -0.2500000   0.7500000), wk =   0.1111111
        k(   10) = (   0.4166667  -0.0833333   0.5833333), wk =   0.1111111
        k(   11) = (   0.2500000   0.0833333   0.4166667), wk =   0.1111111
        k(   12) = (  -0.0833333   0.7500000   0.0833333), wk =   0.0555556
        k(   13) = (   0.7500000  -0.0833333   0.9166667), wk =   0.1111111
        k(   14) = (   0.5833333   0.0833333   0.7500000), wk =   0.1111111
        k(   15) = (   0.4166667   0.2500000   0.5833333), wk =   0.1111111
        k(   16) = (  -0.0833333  -0.9166667   0.0833333), wk =   0.0555556
        k(   17) = (  -0.2500000  -0.7500000  -0.0833333), wk =   0.1111111
        k(   18) = (  -0.0833333  -0.5833333   0.0833333), wk =   0.0555556
        k(   19) = (  -0.2500000   0.2500000   0.2500000), wk =   0.0185185
        k(   20) = (  -0.4166667   0.4166667   0.0833333), wk =   0.0555556
        k(   21) = (   0.4166667  -0.4166667   0.9166667), wk =   0.0555556
        k(   22) = (   0.2500000  -0.2500000   0.7500000), wk =   0.0555556
        k(   23) = (  -0.2500000   0.5833333   0.2500000), wk =   0.0555556
        k(   24) = (   0.5833333  -0.2500000   1.0833333), wk =   0.1111111
        k(   25) = (   0.4166667  -0.0833333   0.9166667), wk =   0.1111111
        k(   26) = (  -0.2500000  -1.0833333   0.2500000), wk =   0.0555556
        k(   27) = (  -0.4166667   0.4166667   0.4166667), wk =   0.0185185
        k(   28) = (   0.4166667  -0.4166667   1.2500000), wk =   0.0555556

                       cryst. coord.
        k(    1) = (   0.0833333   0.0833333   0.0833333), wk =   0.0185185
        k(    2) = (   0.0833333   0.0833333   0.2500000), wk =   0.0555556
        k(    3) = (   0.0833333   0.0833333   0.4166667), wk =   0.0555556
        k(    4) = (   0.0833333   0.0833333  -0.4166667), wk =   0.0555556
        k(    5) = (   0.0833333   0.0833333  -0.2500000), wk =   0.0555556
        k(    6) = (   0.0833333   0.0833333  -0.0833333), wk =   0.0555556
        k(    7) = (   0.0833333   0.2500000   0.2500000), wk =   0.0555556
        k(    8) = (   0.0833333   0.2500000   0.4166667), wk =   0.1111111
        k(    9) = (   0.0833333   0.2500000  -0.4166667), wk =   0.1111111
        k(   10) = (   0.0833333   0.2500000  -0.2500000), wk =   0.1111111
        k(   11) = (   0.0833333   0.2500000  -0.0833333), wk =   0.1111111
        k(   12) = (   0.0833333   0.4166667   0.4166667), wk =   0.0555556
        k(   13) = (   0.0833333   0.4166667  -0.4166667), wk =   0.1111111
        k(   14) = (   0.0833333   0.4166667  -0.2500000), wk =   0.1111111
        k(   15) = (   0.0833333   0.4166667  -0.0833333), wk =   0.1111111
        k(   16) = (   0.0833333  -0.4166667  -0.4166667), wk =   0.0555556
        k(   17) = (   0.0833333  -0.4166667  -0.2500000), wk =   0.1111111
        k(   18) = (   0.0833333  -0.2500000  -0.2500000), wk =   0.0555556
        k(   19) = (   0.2500000   0.2500000   0.2500000), wk =   0.0185185
        k(   20) = (   0.2500000   0.2500000   0.4166667), wk =   0.0555556
        k(   21) = (   0.2500000   0.2500000  -0.4166667), wk =   0.0555556
        k(   22) = (   0.2500000   0.2500000  -0.2500000), wk =   0.0555556
        k(   23) = (   0.2500000   0.4166667   0.4166667), wk =   0.0555556
        k(   24) = (   0.2500000   0.4166667  -0.4166667), wk =   0.1111111
        k(   25) = (   0.2500000   0.4166667  -0.2500000), wk =   0.1111111
        k(   26) = (   0.2500000  -0.4166667  -0.4166667), wk =   0.0555556
        k(   27) = (   0.4166667   0.4166667   0.4166667), wk =   0.0185185
        k(   28) = (   0.4166667   0.4166667  -0.4166667), wk =   0.0555556

     Dense  grid:    12939 G-vectors     FFT dimensions: (  36,  36,  36)

     Smooth grid:     9257 G-vectors     FFT dimensions: (  32,  32,  32)

     Dynamical RAM for                 wfc:       0.02 MB

     Dynamical RAM for     wfc (w. buffer):       0.51 MB

     Dynamical RAM for           str. fact:       0.05 MB

     Dynamical RAM for           local pot:       0.00 MB

     Dynamical RAM for          nlocal pot:       0.16 MB

     Dynamical RAM for                qrad:       1.14 MB

     Dynamical RAM for          rho,v,vnew:       0.42 MB

     Dynamical RAM for               rhoin:       0.14 MB

     Dynamical RAM for            rho*nmix:       0.79 MB

     Dynamical RAM for           G-vectors:       0.20 MB

     Dynamical RAM for          h,s,v(r/c):       0.00 MB

     Dynamical RAM for          <psi|beta>:       0.00 MB

     Dynamical RAM for                 psi:       0.04 MB

     Dynamical RAM for                hpsi:       0.04 MB

     Dynamical RAM for                spsi:       0.04 MB

     Dynamical RAM for      wfcinit/wfcrot:       0.04 MB

     Dynamical RAM for           addusdens:       9.28 MB

     Estimated static dynamical RAM per process >       3.15 MB

     Estimated max dynamical RAM per process >      13.22 MB

     Estimated total dynamical RAM >      52.89 MB

     Initial potential from superposition of free atoms

     starting charge       7.9989, renormalised to       8.0000
     Starting wfcs are    8 randomized atomic wfcs

     total cpu time spent up to now is        0.2 secs

     per-process dynamical memory:    16.2 Mb

     Self-consistent Calculation

     iteration #  1     ecut=    40.00 Ry     beta= 0.70
     Davidson diagonalization with overlap

---- Real-time Memory Report at c_bands before calling an iterative solver
           187 MiB given to the printing process from OS
            15 MiB allocation reported by mallinfo(arena+hblkhd)
          3224 MiB available memory on the node where the printing process lives
------------------
     ethr =  1.00E-02,  avg # of iterations =  2.0

     Threshold (ethr) on eigenvalues was too large:
     Diagonalizing with lowered threshold

     Davidson diagonalization with overlap

---- Real-time Memory Report at c_bands before calling an iterative solver
           190 MiB given to the printing process from OS
            25 MiB allocation reported by mallinfo(arena+hblkhd)
          3192 MiB available memory on the node where the printing process lives
------------------
     ethr =  6.21E-04,  avg # of iterations =  1.4

     total cpu time spent up to now is        0.4 secs

     total energy              =     -22.83705237 Ry
     estimated scf accuracy    <       0.05380066 Ry

     iteration #  2     ecut=    40.00 Ry     beta= 0.70
     Davidson diagonalization with overlap

---- Real-time Memory Report at c_bands before calling an iterative solver
           190 MiB given to the printing process from OS
            25 MiB allocation reported by mallinfo(arena+hblkhd)
          3191 MiB available memory on the node where the printing process lives
------------------
     ethr =  6.73E-04,  avg # of iterations =  1.0

     total cpu time spent up to now is        0.6 secs

     total energy              =     -22.83881704 Ry
     estimated scf accuracy    <       0.00284928 Ry

     iteration #  3     ecut=    40.00 Ry     beta= 0.70
     Davidson diagonalization with overlap

---- Real-time Memory Report at c_bands before calling an iterative solver
           190 MiB given to the printing process from OS
            25 MiB allocation reported by mallinfo(arena+hblkhd)
          3194 MiB available memory on the node where the printing process lives
------------------
     ethr =  3.56E-05,  avg # of iterations =  2.7

     total cpu time spent up to now is        0.7 secs

     total energy              =     -22.83961206 Ry
     estimated scf accuracy    <       0.00011142 Ry

     iteration #  4     ecut=    40.00 Ry     beta= 0.70
     Davidson diagonalization with overlap

---- Real-time Memory Report at c_bands before calling an iterative solver
           190 MiB given to the printing process from OS
            25 MiB allocation reported by mallinfo(arena+hblkhd)
          3206 MiB available memory on the node where the printing process lives
------------------
     ethr =  1.39E-06,  avg # of iterations =  3.9

     total cpu time spent up to now is        0.9 secs

     total energy              =     -22.83968144 Ry
     estimated scf accuracy    <       0.00001829 Ry

     iteration #  5     ecut=    40.00 Ry     beta= 0.70
     Davidson diagonalization with overlap

---- Real-time Memory Report at c_bands before calling an iterative solver
           190 MiB given to the printing process from OS
            25 MiB allocation reported by mallinfo(arena+hblkhd)
          3209 MiB available memory on the node where the printing process lives
------------------
     ethr =  2.29E-07,  avg # of iterations =  3.4

     total cpu time spent up to now is        1.1 secs

     total energy              =     -22.83968815 Ry
     estimated scf accuracy    <       0.00000048 Ry

     iteration #  6     ecut=    40.00 Ry     beta= 0.70
     Davidson diagonalization with overlap

---- Real-time Memory Report at c_bands before calling an iterative solver
           190 MiB given to the printing process from OS
            25 MiB allocation reported by mallinfo(arena+hblkhd)
          3212 MiB available memory on the node where the printing process lives
------------------
     ethr =  6.05E-09,  avg # of iterations =  5.1

     total cpu time spent up to now is        1.3 secs

     total energy              =     -22.83968867 Ry
     estimated scf accuracy    <       0.00000020 Ry

     iteration #  7     ecut=    40.00 Ry     beta= 0.70
     Davidson diagonalization with overlap

---- Real-time Memory Report at c_bands before calling an iterative solver
           190 MiB given to the printing process from OS
            25 MiB allocation reported by mallinfo(arena+hblkhd)
          3213 MiB available memory on the node where the printing process lives
------------------
     ethr =  2.45E-09,  avg # of iterations =  2.2

     total cpu time spent up to now is        1.4 secs

     End of self-consistent calculation

          k =-0.0833 0.0833 0.0833 (  1179 PWs)   bands (ev):

    -5.6657   5.3509   6.0663   6.0663

     occupation numbers 
     1.0000   1.0000   1.0000   1.0000

          k =-0.2500 0.2500-0.0833 (  1160 PWs)   bands (ev):

    -5.1872   3.2657   4.8228   5.8562

     occupation numbers 
     1.0000   1.0000   1.0000   1.0000

          k =-0.4167 0.4167-0.2500 (  1147 PWs)   bands (ev):

    -4.0899   0.4903   4.3588   5.2158

     occupation numbers 
     1.0000   1.0000   1.0000   1.0000

          k = 0.4167-0.4167 0.5833 (  1156 PWs)   bands (ev):

    -3.3867  -0.6608   4.4272   4.8325

     occupation numbers 
     1.0000   1.0000   1.0000   1.0000

          k = 0.2500-0.2500 0.4167 (  1151 PWs)   bands (ev):

    -4.5038   1.3410   4.8915   4.9291

     occupation numbers 
     1.0000   1.0000   1.0000   1.0000

          k = 0.0833-0.0833 0.2500 (  1164 PWs)   bands (ev):

    -5.4241   4.2816   5.4151   5.6064

     occupation numbers 
     1.0000   1.0000   1.0000   1.0000

          k =-0.0833 0.4167 0.0833 (  1155 PWs)   bands (ev):

    -4.9451   3.0833   4.6684   4.6809

     occupation numbers 
     1.0000   1.0000   1.0000   1.0000

          k =-0.2500 0.5833-0.0833 (  1152 PWs)   bands (ev):

    -4.0309   1.2369   3.3407   4.2927

     occupation numbers 
     1.0000   1.0000   1.0000   1.0000

          k = 0.5833-0.2500 0.7500 (  1152 PWs)   bands (ev):

    -2.9077  -0.5262   2.7383   4.0634

     occupation numbers 
     1.0000   1.0000   1.0000   1.0000

          k = 0.4167-0.0833 0.5833 (  1153 PWs)   bands (ev):

    -3.6343   0.5394   2.6936   4.5538

     occupation numbers 
     1.0000   1.0000   1.0000   1.0000

          k = 0.2500 0.0833 0.4167 (  1148 PWs)   bands (ev):

    -4.7187   2.2395   4.0419   5.2277

     occupation numbers 
     1.0000   1.0000   1.0000   1.0000

          k =-0.0833 0.7500 0.0833 (  1152 PWs)   bands (ev):

    -3.3167   0.4106   3.3037   3.6472

     occupation numbers 
     1.0000   1.0000   1.0000   1.0000

          k = 0.7500-0.0833 0.9167 (  1153 PWs)   bands (ev):

    -2.1148  -0.9349   2.4546   3.2366

     occupation numbers 
     1.0000   1.0000   1.0000   1.0000

          k = 0.5833 0.0833 0.7500 (  1157 PWs)   bands (ev):

    -2.4860  -0.6012   1.9691   3.7856

     occupation numbers 
     1.0000   1.0000   1.0000   1.0000

          k = 0.4167 0.2500 0.5833 (  1151 PWs)   bands (ev):

    -3.5210  -0.1544   3.6454   4.6527

     occupation numbers 
     1.0000   1.0000   1.0000   1.0000

          k =-0.0833-0.9167 0.0833 (  1148 PWs)   bands (ev):

    -2.2078  -0.9434   3.0325   3.4309

     occupation numbers 
     1.0000   1.0000   1.0000   1.0000

          k =-0.2500-0.7500-0.0833 (  1156 PWs)   bands (ev):

    -3.1470   0.1854   2.7797   3.5787

     occupation numbers 
     1.0000   1.0000   1.0000   1.0000

          k =-0.0833-0.5833 0.0833 (  1152 PWs)   bands (ev):

    -4.2376   1.7809   3.8525   4.0714

     occupation numbers 
     1.0000   1.0000   1.0000   1.0000

          k =-0.2500 0.2500 0.2500 (  1152 PWs)   bands (ev):

    -4.9567   2.2806   5.4494   5.4494

     occupation numbers 
     1.0000   1.0000   1.0000   1.0000

          k =-0.4167 0.4167 0.0833 (  1149 PWs)   bands (ev):

    -4.2747   1.3481   3.3046   5.2799

     occupation numbers 
     1.0000   1.0000   1.0000   1.0000

          k = 0.4167-0.4167 0.9167 (  1150 PWs)   bands (ev):

    -3.0895  -0.0966   2.1901   4.4880

     occupation numbers 
     1.0000   1.0000   1.0000   1.0000

          k = 0.2500-0.2500 0.7500 (  1150 PWs)   bands (ev):

    -3.0374  -0.1760   2.6731   4.0028

     occupation numbers 
     1.0000   1.0000   1.0000   1.0000

          k =-0.2500 0.5833 0.2500 (  1152 PWs)   bands (ev):

    -3.8486   0.5356   3.7761   4.3780

     occupation numbers 
     1.0000   1.0000   1.0000   1.0000

          k = 0.5833-0.2500 1.0833 (  1152 PWs)   bands (ev):

    -2.8417  -0.2071   2.2903   3.5756

     occupation numbers 
     1.0000   1.0000   1.0000   1.0000

          k = 0.4167-0.0833 0.9167 (  1155 PWs)   bands (ev):

    -2.0065  -0.9427   2.1226   2.9032

     occupation numbers 
     1.0000   1.0000   1.0000   1.0000

          k =-0.2500-1.0833 0.2500 (  1149 PWs)   bands (ev):

    -2.2179  -0.8501   1.9957   3.8072

     occupation numbers 
     1.0000   1.0000   1.0000   1.0000

          k =-0.4167 0.4167 0.4167 (  1155 PWs)   bands (ev):

    -3.7585  -0.2583   5.0598   5.0598

     occupation numbers 
     1.0000   1.0000   1.0000   1.0000

          k = 0.4167-0.4167 1.2500 (  1157 PWs)   bands (ev):

    -3.1501  -0.5595   3.2170   4.6160

     occupation numbers 
     1.0000   1.0000   1.0000   1.0000

     highest occupied level (ev):     6.0663

!    total energy              =     -22.83968871 Ry
     estimated scf accuracy    <          8.6E-09 Ry

     The total energy is the sum of the following terms:
     one-electron contribution =       5.17117733 Ry
     hartree contribution      =       1.09974833 Ry
     xc contribution           =     -12.30968477 Ry
     ewald contribution        =     -16.80092961 Ry

     convergence has been achieved in   7 iterations

     Writing all to output data dir ./silicon.save/ :
     XML data file, charge density, pseudopotentials, collected wavefunctions

     init_run     :      0.12s CPU      0.14s WALL (       1 calls)
     electrons    :      1.12s CPU      1.24s WALL (       1 calls)

     Called by init_run:
     wfcinit      :      0.05s CPU      0.06s WALL (       1 calls)
     wfcinit:atom :      0.00s CPU      0.00s WALL (      28 calls)
     wfcinit:wfcr :      0.04s CPU      0.05s WALL (      28 calls)
     potinit      :      0.01s CPU      0.01s WALL (       1 calls)
     hinit0       :      0.05s CPU      0.05s WALL (       1 calls)

     Called by electrons:
     c_bands      :      0.78s CPU      0.85s WALL (       8 calls)
     sum_band     :      0.22s CPU      0.24s WALL (       8 calls)
     v_of_rho     :      0.04s CPU      0.04s WALL (       8 calls)
     v_h          :      0.00s CPU      0.00s WALL (       8 calls)
     v_xc         :      0.04s CPU      0.04s WALL (       8 calls)
     newd         :      0.09s CPU      0.09s WALL (       8 calls)
     mix_rho      :      0.01s CPU      0.01s WALL (       8 calls)

     Called by c_bands:
     init_us_2    :      0.04s CPU      0.05s WALL (     476 calls)
     cegterg      :      0.70s CPU      0.77s WALL (     224 calls)

     Called by sum_band:
     sum_band:wei :      0.00s CPU      0.00s WALL (       8 calls)
     sum_band:loo :      0.10s CPU      0.12s WALL (       8 calls)
     sum_band:buf :      0.00s CPU      0.00s WALL (     224 calls)
     sum_band:ini :      0.02s CPU      0.02s WALL (     224 calls)
     sum_band:cal :      0.01s CPU      0.01s WALL (     224 calls)
     sum_band:bec :      0.00s CPU      0.00s WALL (     224 calls)
     addusdens    :      0.10s CPU      0.11s WALL (       8 calls)
                                        0.00s GPU  (       8 calls)
     addusd:skk   :      0.00s CPU      0.00s WALL (       8 calls)
                                        0.00s GPU  (       8 calls)

     Called by *egterg:
     cdiaghg      :      0.04s CPU      0.05s WALL (     807 calls)
     cegterg:over :      0.02s CPU      0.02s WALL (     611 calls)
     cegterg:upda :      0.01s CPU      0.01s WALL (     611 calls)
     cegterg:last :      0.01s CPU      0.01s WALL (     534 calls)
     h_psi        :      0.62s CPU      0.68s WALL (     863 calls)
     s_psi        :      0.01s CPU      0.02s WALL (     863 calls)
     g_psi        :      0.00s CPU      0.00s WALL (     611 calls)

     Called by h_psi:
     h_psi:calbec :      0.04s CPU      0.05s WALL (     863 calls)
     vloc_psi     :      0.54s CPU      0.60s WALL (     863 calls)
                                        0.00s GPU  (     863 calls)
     add_vuspsi   :      0.03s CPU      0.03s WALL (     863 calls)

     General routines
     calbec       :      0.05s CPU      0.06s WALL (    1087 calls)
     fft          :      0.02s CPU      0.02s WALL (     103 calls)
     ffts         :      0.00s CPU      0.00s WALL (      16 calls)
     fftw         :      0.55s CPU      0.61s WALL (    6892 calls)
     interpolate  :      0.00s CPU      0.00s WALL (       8 calls)

     Parallel routines

     PWSCF        :      1.33s CPU      1.47s WALL


   This run was terminated on:  14:56: 7  16Jan2026            

=------------------------------------------------------------------------------=
   JOB DONE.
=------------------------------------------------------------------------------=
